<VTKFile type="UnstructuredGrid" version="0.1" byte_order="LittleEndian">
  <UnstructuredGrid>
    <Piece NumberOfPoints="2800" NumberOfCells="2800">
      <PointData Vectors="vector">
        <DataArray type="Float32" Name="Vel" NumberOfComponents="3" format="ascii">
2.27886e-07 3.24156e-09 0
1.09327e-07 1.25894e-08 0
6.58886e-08 -6.21566e-11 0
1.06769e-07 -6.55947e-09 0
1.24918e-07 -4.26517e-09 0
1.26188e-07 -2.76165e-09 0
1.25765e-07 -1.82654e-09 0
1.25794e-07 -8.69275e-10 0
1.26057e-07 1.17423e-10 0
1.26806e-07 1.51758e-09 0
1.23655e-07 4.20309e-09 0
1.01622e-07 2.58422e-09 0
9.52672e-08 -1.32028e-08 0
1.37079e-07 -1.72118e-08 0
1.53673e-07 -1.86694e-09 0
1.44441e-07 3.1479e-09 0
1.44834e-07 -1.65614e-09 0
1.46587e-07 -8.71532e-09 0
1.32356e-07 -1.52111e-08 0
1.07326e-07 -1.58943e-08 0
1.10905e-07 -8.08964e-09 0
1.17649e-07 1.6329e-09 0
1.1507e-07 5.7348e-09 0
1.21245e-07 4.19529e-09 0
1.22437e-07 4.50419e-10 0
1.22597e-07 -3.17723e-09 0
1.2167e-07 -5.0426e-09 0
1.15586e-07 -5.01645e-09 0
1.17665e-07 -1.18947e-09 0
1.10436e-07 7.91541e-09 0
1.09013e-07 1.71524e-08 0
1.33454e-07 1.83478e-08 0
1.46452e-07 1.17384e-08 0
1.44467e-07 3.92766e-09 0
1.44433e-07 -2.50323e-09 0
1.50701e-07 -2.1736e-09 0
1.40782e-07 1.09896e-08 0
1.02707e-07 1.34852e-08 0
9.62641e-08 3.16052e-10 0
1.20161e-07 -4.80211e-09 0
1.26648e-07 -2.4773e-09 0
1.26098e-07 -8.77448e-10 0
1.25765e-07 2.00642e-10 0
1.25753e-07 1.24306e-09 0
1.26178e-07 2.22703e-09 0
1.24827e-07 3.24594e-09 0
1.11475e-07 5.22803e-09 0
7.17427e-08 3.57414e-09 0
8.48024e-08 -1.64085e-08 0
2.10459e-07 -2.19498e-08 0
5.14499e-07 -4.63299e-08 0
6.77884e-07 -8.34576e-08 0
8.6246e-07 -7.36205e-09 0
3.5394e-07 -6.5013e-08 0
6.28566e-07 -1.2295e-07 0
8.80466e-07 -3.75985e-08 0
2.93568e-07 -3.82184e-08 0
5.80427e-07 -7.90676e-08 0
8.67027e-07 -3.46124e-08 0
3.42133e-07 -2.0373e-08 0
6.02303e-07 -3.76844e-08 0
8.72296e-07 -1.72667e-08 0
3.66916e-07 -1.27423e-08 0
6.16605e-07 -1.85135e-08 0
8.72874e-07 -4.07393e-09 0
3.72725e-07 -8.38429e-09 0
6.21991e-07 -9.36023e-09 0
8.73162e-07 3.28709e-09 0
3.74173e-07 -4.93039e-09 0
6.23646e-07 -3.80818e-09 0
8.73154e-07 7.6916e-09 0
3.7463e-07 -1.97992e-09 0
6.24073e-07 2.92373e-10 0
8.73174e-07 1.09612e-08 0
3.74662e-07 9.23447e-10 0
6.23789e-07 4.18841e-09 0
8.73106e-07 1.42067e-08 0
3.73719e-07 4.3928e-09 0
6.22408e-07 8.9461e-09 0
8.73542e-07 1.89763e-08 0
3.6263e-07 9.51108e-09 0
6.14825e-07 1.79315e-08 0
8.73156e-07 2.84042e-08 0
3.23181e-07 1.72784e-08 0
5.92467e-07 4.32067e-08 0
8.69923e-07 4.99468e-08 0
3.29424e-07 2.45798e-08 0
5.9652e-07 8.29016e-08 0
8.72629e-07 8.07098e-08 0
4.04945e-07 2.53003e-08 0
6.43967e-07 8.36403e-08 0
8.73047e-07 8.13085e-08 0
4.30611e-07 1.80155e-08 0
6.61601e-07 4.26289e-08 0
8.74353e-07 4.70138e-08 0
4.11369e-07 6.74275e-09 0
6.54984e-07 8.94507e-09 0
8.82913e-07 1.1226e-08 0
4.07116e-07 -6.76986e-09 0
6.53847e-07 -1.44285e-08 0
8.85384e-07 -1.96568e-08 0
4.00092e-07 -2.03494e-08 0
6.45036e-07 -3.28822e-08 0
8.78689e-07 -4.79854e-08 0
3.76404e-07 -3.26216e-08 0
6.19562e-07 -4.38029e-08 0
8.63793e-07 -6.7732e-08 0
3.53346e-07 -3.19633e-08 0
6.02658e-07 -4.40068e-08 0
8.54231e-07 -6.97589e-08 0
3.58082e-07 -1.97072e-08 0
6.05764e-07 -4.03683e-08 0
8.54181e-07 -6.25302e-08 0
3.61408e-07 -9.84204e-09 0
6.05369e-07 -3.82934e-08 0
8.55665e-07 -5.40505e-08 0
3.5458e-07 -1.75505e-09 0
6.03586e-07 -2.96673e-08 0
8.60966e-07 -3.94394e-08 0
3.56512e-07 6.45586e-10 0
6.01881e-07 -1.71138e-08 0
8.58818e-07 -2.16538e-08 0
3.57982e-07 -2.39529e-09 0
6.01963e-07 -7.28549e-09 0
8.58281e-07 -5.75127e-09 0
3.60362e-07 -4.24836e-09 0
6.06459e-07 3.42281e-09 0
8.6373e-07 9.92427e-09 0
3.6056e-07 -3.26035e-09 0
6.09715e-07 1.58784e-08 0
8.68599e-07 2.61312e-08 0
3.56426e-07 3.1206e-09 0
6.06864e-07 3.09416e-08 0
8.63362e-07 4.39002e-08 0
3.60373e-07 1.09912e-08 0
6.0648e-07 3.96595e-08 0
8.52279e-07 5.72513e-08 0
3.59899e-07 2.05176e-08 0
6.08393e-07 4.11723e-08 0
8.5503e-07 6.40371e-08 0
3.61652e-07 3.47314e-08 0
6.17407e-07 4.5333e-08 0
8.67145e-07 6.98034e-08 0
3.8355e-07 3.6002e-08 0
6.32181e-07 4.40138e-08 0
8.73641e-07 6.61713e-08 0
4.01236e-07 2.29112e-08 0
6.46673e-07 3.20137e-08 0
8.81159e-07 4.41153e-08 0
4.05745e-07 9.02634e-09 0
6.52899e-07 1.33112e-08 0
8.84564e-07 1.38446e-08 0
4.08455e-07 -5.1869e-09 0
6.52209e-07 -9.53459e-09 0
8.80398e-07 -1.67894e-08 0
4.21293e-07 -1.8558e-08 0
6.50174e-07 -4.348e-08 0
8.62979e-07 -5.09258e-08 0
3.97036e-07 -2.79499e-08 0
6.25971e-07 -8.50643e-08 0
8.48639e-07 -8.36005e-08 0
3.28004e-07 -2.78773e-08 0
5.90784e-07 -8.4962e-08 0
8.62889e-07 -8.17762e-08 0
3.24203e-07 -1.85411e-08 0
5.909e-07 -4.50429e-08 0
8.75046e-07 -5.02385e-08 0
3.62064e-07 -1.06507e-08 0
6.13331e-07 -1.96477e-08 0
8.72961e-07 -2.73037e-08 0
3.73151e-07 -5.79137e-09 0
6.21621e-07 -1.04385e-08 0
8.73485e-07 -1.66623e-08 0
3.74331e-07 -2.27737e-09 0
6.23353e-07 -5.11146e-09 0
8.73086e-07 -1.10307e-08 0
3.74414e-07 8.93644e-10 0
6.23776e-07 -6.38955e-10 0
8.73219e-07 -7.03128e-09 0
3.73872e-07 4.20619e-09 0
6.23168e-07 4.21481e-09 0
8.73204e-07 -2.74809e-09 0
3.71784e-07 7.95504e-09 0
6.20664e-07 1.09239e-08 0
8.73102e-07 3.50005e-09 0
3.63182e-07 1.27767e-08 0
6.1388e-07 2.27878e-08 0
8.72875e-07 1.41582e-08 0
3.39779e-07 2.31737e-08 0
6.03583e-07 4.64846e-08 0
8.70601e-07 2.90808e-08 0
2.95833e-07 5.06426e-08 0
5.99261e-07 9.49601e-08 0
8.76061e-07 3.84359e-08 0
3.36318e-07 7.73173e-08 0
5.97337e-07 1.42485e-07 0
8.36981e-07 3.56557e-08 0
4.8585e-07 3.79556e-08 0
6.43269e-07 5.39433e-08 0
8.09765e-07 2.10893e-08 0
1.11635e-06 5.97923e-08 0
1.41363e-06 4.20025e-08 0
1.66168e-06 -5.2778e-08 0
1.10753e-06 5.8688e-08 0
1.33908e-06 5.76593e-08 0
1.597e-06 -4.10066e-08 0
1.10973e-06 3.54033e-08 0
1.33475e-06 4.24265e-08 0
1.58818e-06 -5.34628e-09 0
1.12122e-06 2.157e-08 0
1.35665e-06 2.79848e-08 0
1.60609e-06 1.18515e-08 0
1.12208e-06 1.77924e-08 0
1.36594e-06 2.28082e-08 0
1.61459e-06 1.83866e-08 0
1.12163e-06 1.84022e-08 0
1.36842e-06 2.25624e-08 0
1.61684e-06 2.1841e-08 0
1.12125e-06 2.00564e-08 0
1.3686e-06 2.36905e-08 0
1.61644e-06 2.42163e-08 0
1.12106e-06 2.16058e-08 0
1.36794e-06 2.45202e-08 0
1.61444e-06 2.54098e-08 0
1.12137e-06 2.28419e-08 0
1.36731e-06 2.39583e-08 0
1.61112e-06 2.416e-08 0
1.12382e-06 2.42133e-08 0
1.3686e-06 2.07058e-08 0
1.60718e-06 1.73747e-08 0
1.12963e-06 2.76194e-08 0
1.37657e-06 1.39045e-08 0
1.60655e-06 -1.89466e-09 0
1.14373e-06 4.16672e-08 0
1.40204e-06 5.03547e-09 0
1.62017e-06 -4.33528e-08 0
1.13947e-06 6.63473e-08 0
1.39451e-06 -2.70101e-09 0
1.62274e-06 -8.63919e-08 0
1.10421e-06 6.82907e-08 0
1.33894e-06 -4.93524e-09 0
1.60591e-06 -8.18252e-08 0
1.09135e-06 3.99406e-08 0
1.32276e-06 -2.45008e-09 0
1.59946e-06 -3.97199e-08 0
1.10645e-06 7.96941e-09 0
1.34113e-06 -4.34213e-09 0
1.60247e-06 -8.44075e-09 0
1.10959e-06 -1.88552e-08 0
1.34438e-06 -9.29556e-09 0
1.60296e-06 1.00451e-08 0
1.10114e-06 -4.62226e-08 0
1.33439e-06 -1.18395e-08 0
1.60237e-06 3.60204e-08 0
1.09922e-06 -6.99866e-08 0
1.34178e-06 -1.00165e-08 0
1.60393e-06 6.73103e-08 0
1.11011e-06 -7.1265e-08 0
1.37078e-06 -6.85189e-09 0
1.60931e-06 6.77779e-08 0
1.11555e-06 -5.14289e-08 0
1.38165e-06 -2.39955e-09 0
1.61306e-06 3.89707e-08 0
1.11575e-06 -2.83263e-08 0
1.37492e-06 3.49891e-09 0
1.61339e-06 1.52368e-08 0
1.11903e-06 -1.42321e-08 0
1.3662e-06 4.20686e-09 0
1.61038e-06 7.37386e-09 0
1.11492e-06 -6.31967e-09 0
1.36333e-06 4.45579e-09 0
1.60962e-06 7.11991e-09 0
1.11447e-06 3.36666e-09 0
1.36496e-06 7.16895e-09 0
1.60817e-06 4.44669e-09 0
1.11875e-06 1.17903e-08 0
1.36454e-06 7.11767e-09 0
1.60663e-06 -1.94444e-10 0
1.12308e-06 1.58577e-08 0
1.3632e-06 3.34544e-09 0
1.60776e-06 -1.22978e-09 0
1.12037e-06 1.87796e-08 0
1.3668e-06 -7.07948e-10 0
1.61149e-06 5.10045e-11 0
1.11239e-06 3.2829e-08 0
1.37526e-06 3.17023e-09 0
1.61503e-06 -9.24412e-09 0
1.11637e-06 5.53812e-08 0
1.38161e-06 1.0376e-08 0
1.61208e-06 -3.49999e-08 0
1.12203e-06 7.14857e-08 0
1.37102e-06 9.87768e-09 0
1.60605e-06 -6.65477e-08 0
1.10748e-06 6.61737e-08 0
1.34311e-06 5.57336e-09 0
1.6045e-06 -6.64587e-08 0
1.10249e-06 3.848e-08 0
1.33477e-06 3.87902e-09 0
1.60376e-06 -3.35269e-08 0
1.10832e-06 8.80141e-09 0
1.34334e-06 5.35183e-10 0
1.60321e-06 -7.43856e-09 0
1.10368e-06 -1.77594e-08 0
1.33824e-06 -2.95765e-09 0
1.60256e-06 1.34597e-08 0
1.08155e-06 -4.54929e-08 0
1.31585e-06 1.92435e-11 0
1.5973e-06 5.05603e-08 0
1.08587e-06 -6.97797e-08 0
1.3354e-06 8.81335e-09 0
1.60626e-06 9.58067e-08 0
1.1353e-06 -6.59414e-08 0
1.39857e-06 1.07554e-08 0
1.62369e-06 8.86705e-08 0
1.14807e-06 -3.98397e-08 0
1.40657e-06 1.66507e-09 0
1.61536e-06 3.66225e-08 0
1.13045e-06 -2.32937e-08 0
1.37864e-06 -8.06054e-09 0
1.60687e-06 2.12523e-10 0
1.1241e-06 -1.80529e-08 0
1.36944e-06 -1.42582e-08 0
1.60916e-06 -1.43485e-08 0
1.12167e-06 -1.5786e-08 0
1.36788e-06 -1.67139e-08 0
1.61291e-06 -1.85893e-08 0
1.12149e-06 -1.38478e-08 0
1.36846e-06 -1.66554e-08 0
1.61571e-06 -1.84827e-08 0
1.12193e-06 -1.15659e-08 0
1.36914e-06 -1.54187e-08 0
1.61707e-06 -1.65936e-08 0
1.12287e-06 -9.2023e-09 0
1.36897e-06 -1.43403e-08 0
1.61651e-06 -1.39072e-08 0
1.12344e-06 -8.47171e-09 0
1.36573e-06 -1.534e-08 0
1.6123e-06 -9.91119e-09 0
1.11686e-06 -1.34193e-08 0
1.35183e-06 -2.02815e-08 0
1.59858e-06 -6.36315e-11 0
1.10475e-06 -3.52728e-08 0
1.32121e-06 -3.42182e-08 0
1.57163e-06 2.86651e-08 0
1.08778e-06 -5.65809e-08 0
1.34126e-06 -5.13655e-08 0
1.60305e-06 5.64998e-08 0
1.0987e-06 -6.85682e-09 0
1.42977e-06 -1.63114e-08 0
1.67847e-06 1.8404e-08 0
1.86088e-06 -6.52598e-08 0
2.09479e-06 2.30834e-08 0
2.35975e-06 4.97152e-08 0
1.89191e-06 -6.25805e-08 0
2.14941e-06 1.27881e-08 0
2.37575e-06 4.46432e-08 0
1.87467e-06 -2.07861e-08 0
2.13884e-06 8.66752e-09 0
2.37829e-06 2.35578e-08 0
2.34258e-06 -8.45154e-09 0
2.0363e-06 4.12451e-09 0
1.82186e-06 1.18556e-08 0
1.86844e-06 5.24161e-09 0
2.12577e-06 1.32877e-08 0
2.37427e-06 1.66619e-08 0
1.86776e-06 1.60697e-08 0
2.12074e-06 1.84916e-08 0
2.3712e-06 1.73549e-08 0
1.86729e-06 2.1576e-08 0
2.11861e-06 2.30828e-08 0
2.36978e-06 2.03498e-08 0
1.86574e-06 2.53714e-08 0
2.11646e-06 2.76833e-08 0
2.36858e-06 2.46638e-08 0
1.86234e-06 2.82079e-08 0
2.1125e-06 3.28069e-08 0
2.36628e-06 3.07011e-08 0
1.8558e-06 2.93348e-08 0
2.10434e-06 3.88134e-08 0
2.36136e-06 4.0053e-08 0
1.84355e-06 2.5728e-08 0
2.08674e-06 4.5795e-08 0
2.3498e-06 5.63248e-08 0
1.82372e-06 9.56355e-09 0
2.05723e-06 5.40791e-08 0
2.33282e-06 8.70584e-08 0
1.81933e-06 -2.51651e-08 0
2.05216e-06 6.3349e-08 0
2.32667e-06 1.3063e-07 0
1.85086e-06 -5.51351e-08 0
2.09664e-06 6.60711e-08 0
2.34864e-06 1.49252e-07 0
1.88574e-06 -4.78934e-08 0
2.14189e-06 5.60527e-08 0
2.35605e-06 1.18975e-07 0
1.88857e-06 -1.789e-08 0
2.14308e-06 3.78537e-08 0
2.35459e-06 6.82288e-08 0
1.87415e-06 4.67458e-09 0
2.12516e-06 2.28568e-08 0
2.3501e-06 2.98098e-08 0
1.87234e-06 1.92028e-08 0
2.12313e-06 1.15999e-08 0
2.35138e-06 2.25696e-09 0
1.88136e-06 3.48898e-08 0
2.12718e-06 -3.75585e-09 0
2.35185e-06 -2.37113e-08 0
1.8682e-06 4.72306e-08 0
2.10972e-06 -2.14318e-08 0
2.34566e-06 -4.0782e-08 0
1.83822e-06 4.24807e-08 0
2.0866e-06 -2.25956e-08 0
2.34251e-06 -3.98116e-08 0
1.83499e-06 3.03754e-08 0
2.09022e-06 -7.97901e-09 0
2.3483e-06 -3.44079e-08 0
1.84749e-06 2.41452e-08 0
2.097e-06 3.52711e-09 0
2.34909e-06 -3.32835e-08 0
1.85121e-06 1.8314e-08 0
2.09089e-06 4.94434e-09 0
2.34366e-06 -2.56042e-08 0
1.85144e-06 9.98468e-09 0
2.09162e-06 2.40273e-09 0
2.34454e-06 -1.25083e-08 0
1.84913e-06 4.87822e-09 0
2.09438e-06 2.71289e-09 0
2.34699e-06 -2.04915e-09 0
1.84848e-06 1.64066e-09 0
2.09303e-06 4.90743e-09 0
2.34603e-06 8.16278e-09 0
1.85165e-06 -3.78645e-09 0
2.08887e-06 3.44912e-09 0
2.34075e-06 2.04715e-08 0
1.85199e-06 -1.40961e-08 0
2.08906e-06 -2.14462e-09 0
2.34046e-06 3.37887e-08 0
1.84655e-06 -2.39691e-08 0
2.09537e-06 -8.00317e-10 0
2.34728e-06 3.95133e-08 0
1.83064e-06 -3.29002e-08 0
2.08494e-06 1.20374e-08 0
2.34458e-06 4.18413e-08 0
1.83677e-06 -4.44084e-08 0
2.0886e-06 2.74409e-08 0
2.34487e-06 4.81962e-08 0
1.87423e-06 -4.20953e-08 0
2.12143e-06 2.46466e-08 0
2.35337e-06 3.98506e-08 0
1.88435e-06 -2.51475e-08 0
2.13014e-06 6.08586e-09 0
2.35414e-06 1.51812e-08 0
1.87266e-06 -9.66311e-09 0
2.12198e-06 -8.35218e-09 0
2.35127e-06 -1.00912e-08 0
1.87654e-06 4.33737e-09 0
2.1289e-06 -2.00132e-08 0
2.35365e-06 -3.76249e-08 0
1.89188e-06 2.84394e-08 0
2.15078e-06 -3.58131e-08 0
2.35812e-06 -8.18119e-08 0
1.88108e-06 5.95179e-08 0
2.12978e-06 -5.40625e-08 0
2.34372e-06 -1.3595e-07 0
1.83498e-06 5.40764e-08 0
2.06321e-06 -6.25635e-08 0
2.32002e-06 -1.41575e-07 0
1.81364e-06 1.54473e-08 0
2.04764e-06 -5.53783e-08 0
2.32711e-06 -9.86489e-08 0
1.83154e-06 -1.3128e-08 0
2.07775e-06 -4.57363e-08 0
2.34496e-06 -6.11739e-08 0
1.84906e-06 -2.2981e-08 0
2.0997e-06 -3.76789e-08 0
2.35901e-06 -4.09116e-08 0
1.85902e-06 -2.40652e-08 0
2.11063e-06 -3.08799e-08 0
2.36574e-06 -2.95383e-08 0
1.8642e-06 -2.18559e-08 0
2.11574e-06 -2.50932e-08 0
2.36868e-06 -2.25004e-08 0
1.86662e-06 -1.84146e-08 0
2.11813e-06 -1.99506e-08 0
2.37006e-06 -1.75077e-08 0
1.86728e-06 -1.40876e-08 0
2.11938e-06 -1.50102e-08 0
2.37066e-06 -1.35787e-08 0
1.86699e-06 -7.67937e-09 0
2.12121e-06 -1.02869e-08 0
2.3701e-06 -1.157e-08 0
1.86858e-06 6.17156e-09 0
2.12885e-06 -7.68031e-09 0
2.3686e-06 -1.64183e-08 0
1.87455e-06 4.22203e-08 0
2.14189e-06 -1.32193e-08 0
2.36486e-06 -3.8401e-08 0
1.84742e-06 7.78606e-08 0
2.09116e-06 -1.66388e-08 0
2.3493e-06 -5.63843e-08 0
2.63061e-06 1.34279e-08 0
2.86976e-06 -6.75779e-08 0
3.08962e-06 -3.98636e-08 0
2.60526e-06 1.6368e-08 0
2.86944e-06 -5.03031e-08 0
3.15734e-06 -3.19877e-08 0
2.61338e-06 9.07093e-09 0
3.01443e-06 -1.86502e-10 0
2.86374e-06 7.9687e-09 0
2.64659e-06 -8.58881e-09 0
2.86823e-06 -1.90026e-08 0
3.13626e-06 -1.34919e-08 0
2.61966e-06 5.65277e-09 0
2.86929e-06 -8.28224e-09 0
3.12072e-06 -7.87933e-09 0
2.61996e-06 6.08559e-09 0
2.86829e-06 -5.88065e-09 0
3.11555e-06 -8.03174e-09 0
2.61976e-06 7.55667e-09 0
2.86758e-06 -5.77411e-09 0
3.11356e-06 -9.29545e-09 0
2.61972e-06 9.46006e-09 0
2.86733e-06 -6.81786e-09 0
3.11203e-06 -1.15007e-08 0
2.61957e-06 1.22477e-08 0
2.8677e-06 -8.81935e-09 0
3.11051e-06 -1.57969e-08 0
2.61958e-06 1.75529e-08 0
2.87031e-06 -1.13641e-08 0
3.11059e-06 -2.4101e-08 0
2.61875e-06 2.96519e-08 0
2.87839e-06 -1.18835e-08 0
3.11706e-06 -3.92448e-08 0
2.62201e-06 5.69217e-08 0
2.8975e-06 -4.90203e-09 0
3.13391e-06 -6.66594e-08 0
2.61365e-06 9.72951e-08 0
2.8821e-06 7.70666e-09 0
3.12064e-06 -1.03433e-07 0
2.58234e-06 1.14224e-07 0
2.82207e-06 1.17874e-08 0
3.074e-06 -1.14201e-07 0
2.55955e-06 8.90018e-08 0
2.78758e-06 8.7878e-09 0
3.05337e-06 -8.62466e-08 0
2.55995e-06 5.31435e-08 0
2.7914e-06 8.71172e-09 0
3.05699e-06 -5.0926e-08 0
2.5683e-06 2.33667e-08 0
2.79867e-06 5.10239e-09 0
3.05832e-06 -1.9962e-08 0
2.57285e-06 -3.03866e-09 0
2.80123e-06 -3.41243e-09 0
3.05741e-06 9.0669e-09 0
2.57825e-06 -2.72377e-08 0
2.81127e-06 -1.42626e-08 0
3.06457e-06 3.53483e-08 0
2.58881e-06 -3.92008e-08 0
2.83785e-06 -1.92546e-08 0
3.08956e-06 4.77354e-08 0
2.59547e-06 -3.61124e-08 0
2.85372e-06 -1.12551e-08 0
3.10736e-06 4.44814e-08 0
2.59546e-06 -3.27132e-08 0
2.84853e-06 1.3602e-09 0
3.10146e-06 3.85936e-08 0
2.59893e-06 -3.24008e-08 0
2.84999e-06 7.53318e-09 0
3.09495e-06 3.20065e-08 0
2.6046e-06 -2.38473e-08 0
2.85826e-06 7.14605e-09 0
3.09712e-06 2.10555e-08 0
2.6053e-06 -1.06303e-08 0
2.85717e-06 4.37161e-09 0
3.09719e-06 1.02703e-08 0
2.60418e-06 -1.29998e-09 0
2.85382e-06 1.60068e-09 0
3.09598e-06 2.72727e-09 0
2.60466e-06 6.97214e-09 0
2.85579e-06 -1.25094e-09 0
3.09643e-06 -4.74064e-09 0
2.60365e-06 1.91102e-08 0
2.85864e-06 -3.84749e-09 0
3.09746e-06 -1.51187e-08 0
2.59982e-06 3.33423e-08 0
2.85416e-06 -4.5869e-09 0
3.09666e-06 -2.65576e-08 0
2.59499e-06 3.88284e-08 0
2.84715e-06 -8.53548e-10 0
3.09787e-06 -3.42162e-08 0
2.59495e-06 3.98755e-08 0
2.85179e-06 9.43851e-09 0
3.10696e-06 -3.99045e-08 0
2.59364e-06 4.41402e-08 0
2.8446e-06 2.0999e-08 0
3.09835e-06 -4.29164e-08 0
2.5837e-06 3.69524e-08 0
2.81691e-06 2.06312e-08 0
3.0688e-06 -3.12267e-08 0
2.57608e-06 1.47683e-08 0
2.80297e-06 9.19342e-09 0
3.0569e-06 -6.48554e-09 0
2.57347e-06 -1.0703e-08 0
2.80212e-06 -1.72253e-09 0
3.05865e-06 2.16037e-08 0
2.56883e-06 -3.78717e-08 0
2.79799e-06 -9.16314e-09 0
3.05812e-06 5.13359e-08 0
2.55415e-06 -7.17958e-08 0
2.78459e-06 -9.76138e-09 0
3.05307e-06 8.57372e-08 0
2.56177e-06 -1.04825e-07 0
2.80924e-06 -3.0829e-09 0
3.07438e-06 1.18544e-07 0
2.60411e-06 -1.00272e-07 0
2.87833e-06 7.86904e-09 0
3.12234e-06 1.18055e-07 0
2.62314e-06 -6.11023e-08 0
2.89665e-06 1.96577e-08 0
3.13116e-06 8.47929e-08 0
2.61923e-06 -2.84181e-08 0
2.87746e-06 2.43933e-08 0
3.11293e-06 5.4017e-08 0
2.61931e-06 -1.33722e-08 0
2.86834e-06 2.15906e-08 0
3.10586e-06 3.51152e-08 0
2.61952e-06 -7.54789e-09 0
2.86562e-06 1.66814e-08 0
3.10578e-06 2.35419e-08 0
2.61964e-06 -5.31902e-09 0
2.86518e-06 1.22466e-08 0
3.10738e-06 1.64108e-08 0
2.61981e-06 -4.39178e-09 0
2.86533e-06 8.61406e-09 0
3.10862e-06 1.16231e-08 0
2.61957e-06 -4.04593e-09 0
2.86506e-06 5.56953e-09 0
3.10919e-06 7.77008e-09 0
2.61648e-06 -4.40384e-09 0
2.86264e-06 4.30899e-09 0
3.11041e-06 4.99293e-09 0
2.60642e-06 -6.99533e-09 0
2.85547e-06 1.06619e-08 0
3.11848e-06 7.67146e-09 0
2.58731e-06 -1.60415e-08 0
2.84489e-06 3.88082e-08 0
3.13771e-06 2.71263e-08 0
2.60354e-06 -2.51115e-08 0
2.84919e-06 6.28217e-08 0
3.08163e-06 4.58051e-08 0
3.3504e-06 8.04531e-08 0
3.62734e-06 8.73125e-08 0
3.87327e-06 -3.23752e-08 0
3.38729e-06 5.34081e-08 0
3.57429e-06 6.34987e-08 0
3.7912e-06 -2.92531e-08 0
3.95913e-06 7.15552e-09 0
3.66219e-06 -3.26972e-09 0
3.28809e-06 8.47812e-09 0
3.37172e-06 1.49046e-08 0
3.58634e-06 1.52841e-08 0
3.82073e-06 -2.39899e-08 0
3.36241e-06 -1.15937e-09 0
3.59907e-06 -3.79444e-09 0
3.84603e-06 -1.87398e-08 0
3.36028e-06 -6.56466e-09 0
3.60516e-06 -7.92836e-09 0
3.85569e-06 -1.23074e-08 0
3.35899e-06 -8.32782e-09 0
3.60625e-06 -7.07916e-09 0
3.85766e-06 -5.72467e-09 0
3.35616e-06 -9.82107e-09 0
3.6029e-06 -5.13566e-09 0
3.85408e-06 1.54642e-09 0
3.35093e-06 -1.38285e-08 0
3.59397e-06 -4.46993e-09 0
3.84349e-06 1.04207e-08 0
3.3435e-06 -2.46078e-08 0
3.57708e-06 -8.94638e-09 0
3.82215e-06 2.19839e-08 0
3.33678e-06 -4.86658e-08 0
3.55652e-06 -2.31366e-08 0
3.79844e-06 3.71626e-08 0
3.33104e-06 -9.34272e-08 0
3.53724e-06 -4.54018e-08 0
3.78103e-06 5.73524e-08 0
3.32832e-06 -1.44812e-07 0
3.54862e-06 -6.77833e-08 0
3.80067e-06 7.81138e-08 0
3.33981e-06 -1.52238e-07 0
3.60728e-06 -6.96146e-08 0
3.8649e-06 8.18012e-08 0
3.34844e-06 -1.10948e-07 0
3.64039e-06 -4.36055e-08 0
3.89671e-06 6.44307e-08 0
3.34724e-06 -6.27686e-08 0
3.63132e-06 -1.38434e-08 0
3.88015e-06 4.04025e-08 0
3.34623e-06 -1.99732e-08 0
3.62269e-06 3.60616e-09 0
3.86525e-06 1.84869e-08 0
3.34715e-06 2.26383e-08 0
3.62506e-06 1.42041e-08 0
3.86404e-06 -3.50262e-09 0
3.34431e-06 6.48012e-08 0
3.6138e-06 2.24015e-08 0
3.85262e-06 -2.53748e-08 0
3.33766e-06 8.13318e-08 0
3.58181e-06 2.35384e-08 0
3.82888e-06 -3.30922e-08 0
3.33606e-06 6.41398e-08 0
3.56808e-06 1.92371e-08 0
3.8222e-06 -2.52075e-08 0
3.3331e-06 4.08598e-08 0
3.56905e-06 1.70545e-08 0
3.82474e-06 -1.42197e-08 0
3.33119e-06 2.45955e-08 0
3.57124e-06 1.63846e-08 0
3.82235e-06 -5.20254e-09 0
3.33595e-06 1.54607e-08 0
3.57889e-06 1.28965e-08 0
3.82426e-06 -2.65312e-09 0
3.33742e-06 9.91531e-09 0
3.57981e-06 8.09952e-09 0
3.82641e-06 -1.22962e-09 0
3.33649e-06 2.89778e-09 0
3.5778e-06 3.71955e-09 0
3.82704e-06 4.20346e-09 0
3.33697e-06 -4.02538e-09 0
3.58069e-06 3.89009e-10 0
3.82915e-06 1.03789e-08 0
3.33567e-06 -9.52523e-09 0
3.5782e-06 -2.99893e-09 0
3.82328e-06 1.37942e-08 0
3.33186e-06 -1.88291e-08 0
3.57054e-06 -8.69509e-09 0
3.81857e-06 1.67611e-08 0
3.33108e-06 -3.42745e-08 0
3.56798e-06 -1.15856e-08 0
3.82318e-06 2.46875e-08 0
3.33764e-06 -5.58508e-08 0
3.57122e-06 -1.25186e-08 0
3.82617e-06 3.55494e-08 0
3.34519e-06 -7.2191e-08 0
3.59042e-06 -1.49549e-08 0
3.83847e-06 4.01475e-08 0
3.34697e-06 -5.68604e-08 0
3.61614e-06 -1.2406e-08 0
3.85704e-06 2.87871e-08 0
3.3459e-06 -1.59836e-08 0
3.62209e-06 -4.21371e-09 0
3.86132e-06 7.7272e-09 0
3.34589e-06 2.5456e-08 0
3.62053e-06 4.522e-09 0
3.86248e-06 -1.27045e-08 0
3.34721e-06 6.68482e-08 0
3.6294e-06 1.81827e-08 0
3.87695e-06 -3.47337e-08 0
3.34781e-06 1.14409e-07 0
3.63876e-06 4.38961e-08 0
3.89167e-06 -6.07975e-08 0
3.34497e-06 1.55124e-07 0
3.61207e-06 7.01545e-08 0
3.86028e-06 -7.97016e-08 0
3.33665e-06 1.44576e-07 0
3.55698e-06 7.02588e-08 0
3.79992e-06 -7.40327e-08 0
3.32839e-06 9.44773e-08 0
3.53629e-06 4.87448e-08 0
3.78221e-06 -5.31493e-08 0
3.33042e-06 5.37075e-08 0
3.55132e-06 2.66613e-08 0
3.79989e-06 -3.37207e-08 0
3.33711e-06 3.01088e-08 0
3.57014e-06 1.25771e-08 0
3.82207e-06 -1.80396e-08 0
3.34485e-06 1.81222e-08 0
3.58679e-06 7.36962e-09 0
3.83983e-06 -6.05903e-09 0
3.35009e-06 1.26022e-08 0
3.59551e-06 7.08948e-09 0
3.84699e-06 1.99142e-09 0
3.35241e-06 9.50162e-09 0
3.59831e-06 7.80855e-09 0
3.84834e-06 7.52329e-09 0
3.35257e-06 6.23885e-09 0
3.5965e-06 7.67469e-09 0
3.84519e-06 1.32659e-08 0
3.35286e-06 -1.81599e-10 0
3.58948e-06 3.35202e-09 0
3.83381e-06 2.15925e-08 0
3.36137e-06 -1.54167e-08 0
3.58063e-06 -1.31186e-08 0
3.81389e-06 3.16834e-08 0
3.37768e-06 -4.94075e-08 0
3.57148e-06 -5.36218e-08 0
3.79101e-06 4.06632e-08 0
3.32865e-06 -6.61142e-08 0
3.60293e-06 -8.40681e-08 0
3.86576e-06 3.77092e-08 0
4.08914e-06 -1.2558e-07 0
4.30595e-06 -2.70776e-08 0
4.56655e-06 1.03914e-07 0
4.08145e-06 -9.61082e-08 0
4.37352e-06 -2.31642e-08 0
4.60066e-06 7.38535e-08 0
4.50016e-06 2.84561e-08 0
4.20029e-06 3.06467e-10 0
4.07929e-06 -2.03403e-09 0
4.08909e-06 -4.85504e-08 0
4.36126e-06 -8.85785e-09 0
4.60137e-06 4.16711e-08 0
4.10658e-06 -2.50338e-08 0
4.36637e-06 -1.41992e-09 0
4.60775e-06 2.48276e-08 0
4.11173e-06 -1.21654e-08 0
4.36547e-06 1.4298e-09 0
4.60873e-06 1.49163e-08 0
4.1131e-06 -3.30594e-09 0
4.36588e-06 2.86489e-09 0
4.60972e-06 7.49626e-09 0
4.1111e-06 5.87743e-09 0
4.36572e-06 4.78021e-09 0
4.6103e-06 3.8694e-10 0
4.10517e-06 1.90227e-08 0
4.36549e-06 9.09489e-09 0
4.61154e-06 -7.5036e-09 0
4.09283e-06 4.16419e-08 0
4.36456e-06 1.90975e-08 0
4.61413e-06 -1.65259e-08 0
4.07882e-06 7.81169e-08 0
4.36344e-06 3.82581e-08 0
4.61936e-06 -2.53908e-08 0
4.07025e-06 1.27022e-07 0
4.3664e-06 6.76242e-08 0
4.62986e-06 -3.12341e-08 0
4.07567e-06 1.76363e-07 0
4.35589e-06 9.95733e-08 0
4.61007e-06 -3.36225e-08 0
4.09137e-06 1.80878e-07 0
4.31392e-06 1.0324e-07 0
4.55248e-06 -3.20305e-08 0
4.09206e-06 1.26261e-07 0
4.28273e-06 7.28287e-08 0
4.52162e-06 -2.02401e-08 0
4.08495e-06 6.35827e-08 0
4.28903e-06 4.00778e-08 0
4.52918e-06 -6.54003e-09 0
4.08366e-06 2.16433e-08 0
4.30169e-06 1.42308e-08 0
4.53784e-06 -1.37901e-09 0
4.08379e-06 -9.41955e-09 0
4.30434e-06 -9.45057e-09 0
4.53771e-06 -1.81804e-09 0
4.08035e-06 -3.55437e-08 0
4.31058e-06 -3.11333e-08 0
4.54973e-06 -3.97222e-09 0
4.07726e-06 -4.49291e-08 0
4.32627e-06 -3.89104e-08 0
4.57861e-06 -2.92047e-09 0
4.07947e-06 -4.00813e-08 0
4.33363e-06 -3.37858e-08 0
4.58925e-06 2.49361e-09 0
4.08079e-06 -3.48571e-08 0
4.33414e-06 -2.80476e-08 0
4.58906e-06 7.50341e-09 0
4.07777e-06 -2.83366e-08 0
4.33591e-06 -1.89347e-08 0
4.59404e-06 1.15977e-08 0
4.07864e-06 -1.91943e-08 0
4.3381e-06 -6.88093e-09 0
4.59252e-06 1.44806e-08 0
4.08325e-06 -8.46191e-09 0
4.34163e-06 7.5349e-10 0
4.58919e-06 1.16168e-08 0
4.08652e-06 4.38174e-09 0
4.3456e-06 5.42308e-09 0
4.59087e-06 3.73778e-09 0
4.08715e-06 1.81179e-08 0
4.34669e-06 1.05313e-08 0
4.59447e-06 -5.42231e-09 0
4.07856e-06 3.09551e-08 0
4.33877e-06 1.94137e-08 0
4.59385e-06 -9.01063e-09 0
4.07395e-06 4.15984e-08 0
4.33147e-06 3.06775e-08 0
4.58861e-06 -5.18789e-09 0
4.07904e-06 4.78467e-08 0
4.33212e-06 3.8334e-08 0
4.58812e-06 3.09451e-10 0
4.08093e-06 5.14791e-08 0
4.33123e-06 4.3873e-08 0
4.58407e-06 6.05139e-09 0
4.08228e-06 5.00036e-08 0
4.32169e-06 4.26326e-08 0
4.56363e-06 8.56593e-09 0
4.0842e-06 3.4278e-08 0
4.31032e-06 2.80229e-08 0
4.54443e-06 6.602e-09 0
4.08341e-06 8.29969e-09 0
4.3053e-06 6.22132e-09 0
4.53964e-06 4.21902e-09 0
4.08214e-06 -2.13448e-08 0
4.29921e-06 -1.65966e-08 0
4.53619e-06 5.26198e-09 0
4.08197e-06 -6.45421e-08 0
4.28208e-06 -4.28829e-08 0
4.52383e-06 1.52386e-08 0
4.08825e-06 -1.29429e-07 0
4.28091e-06 -7.4944e-08 0
4.526e-06 3.37765e-08 0
4.09075e-06 -1.7922e-07 0
4.32079e-06 -9.72765e-08 0
4.57274e-06 4.49846e-08 0
4.07841e-06 -1.68296e-07 0
4.35912e-06 -8.83998e-08 0
4.62173e-06 4.5977e-08 0
4.07215e-06 -1.18433e-07 0
4.36597e-06 -5.63033e-08 0
4.62672e-06 4.32337e-08 0
4.0811e-06 -7.01641e-08 0
4.364e-06 -2.74721e-08 0
4.61594e-06 3.5361e-08 0
4.09348e-06 -3.41435e-08 0
4.36403e-06 -9.50323e-09 0
4.61025e-06 2.42327e-08 0
4.10132e-06 -1.18546e-08 0
4.3607e-06 -4.79204e-10 0
4.60484e-06 1.42926e-08 0
4.10218e-06 5.4035e-12 0
4.35542e-06 3.44017e-09 0
4.60019e-06 7.62579e-09 0
4.1018e-06 7.12354e-09 0
4.35353e-06 5.49263e-09 0
4.59891e-06 2.93385e-09 0
4.10232e-06 1.56793e-08 0
4.35753e-06 7.6549e-09 0
4.60144e-06 -3.58091e-09 0
4.09966e-06 3.29786e-08 0
4.36374e-06 1.17136e-08 0
4.60313e-06 -1.6975e-08 0
4.08861e-06 6.38081e-08 0
4.36355e-06 1.91101e-08 0
4.59696e-06 -4.16825e-08 0
4.07613e-06 1.13209e-07 0
4.36673e-06 3.18882e-08 0
4.59573e-06 -8.10613e-08 0
4.07113e-06 1.31231e-07 0
4.2769e-06 3.92611e-08 0
4.53863e-06 -8.03641e-08 0
4.83319e-06 8.61301e-08 0
5.08951e-06 -3.82537e-08 0
5.34242e-06 -5.53434e-08 0
4.80128e-06 7.12254e-08 0
5.04781e-06 -8.20153e-09 0
5.34246e-06 -2.54551e-08 0
5.31577e-06 -2.15424e-08 0
5.15528e-06 -9.52004e-09 0
4.87859e-06 1.41748e-08 0
4.82441e-06 4.23282e-08 0
5.06883e-06 1.34108e-08 0
5.33235e-06 2.78687e-09 0
4.84098e-06 2.67399e-08 0
5.08265e-06 1.63653e-08 0
5.33128e-06 1.1578e-08 0
4.84673e-06 1.68545e-08 0
5.08747e-06 1.32521e-08 0
5.33163e-06 1.23745e-08 0
4.8484e-06 8.3965e-09 0
5.08777e-06 7.90825e-09 0
5.32998e-06 1.02877e-08 0
4.84798e-06 -8.85794e-10 0
5.08489e-06 4.9771e-10 0
5.32496e-06 6.71812e-09 0
4.84664e-06 -1.28836e-08 0
5.07891e-06 -1.06278e-08 0
5.3145e-06 9.91701e-10 0
4.84565e-06 -2.96808e-08 0
5.07066e-06 -2.85554e-08 0
5.29887e-06 -9.21842e-09 0
4.84762e-06 -5.33711e-08 0
5.06215e-06 -5.61598e-08 0
5.28424e-06 -2.36248e-08 0
4.85425e-06 -8.80274e-08 0
5.05165e-06 -9.66138e-08 0
5.27031e-06 -3.63084e-08 0
4.84221e-06 -1.28513e-07 0
5.05642e-06 -1.37829e-07 0
5.29019e-06 -4.2888e-08 0
4.81363e-06 -1.3526e-07 0
5.08601e-06 -1.38179e-07 0
5.3565e-06 -3.61935e-08 0
4.80106e-06 -9.81441e-08 0
5.09904e-06 -9.64983e-08 0
5.38373e-06 -1.5636e-08 0
4.80315e-06 -5.5822e-08 0
5.09375e-06 -5.21744e-08 0
5.36844e-06 2.50775e-09 0
4.80456e-06 -2.00208e-08 0
5.09203e-06 -1.48951e-08 0
5.35978e-06 9.34148e-09 0
4.80267e-06 1.43622e-08 0
5.09226e-06 2.12389e-08 0
5.36057e-06 1.07318e-08 0
4.81089e-06 4.64877e-08 0
5.08902e-06 5.53757e-08 0
5.3496e-06 1.01628e-08 0
4.83052e-06 6.00611e-08 0
5.07764e-06 6.65113e-08 0
5.32266e-06 7.40529e-09 0
4.83608e-06 5.3872e-08 0
5.06945e-06 5.50137e-08 0
5.31278e-06 7.2709e-09 0
4.83414e-06 4.29651e-08 0
5.06791e-06 4.24375e-08 0
5.31327e-06 1.12417e-08 0
4.83707e-06 2.90353e-08 0
5.06807e-06 2.81242e-08 0
5.30921e-06 1.46379e-08 0
4.83545e-06 1.55006e-08 0
5.07201e-06 1.33865e-08 0
5.31206e-06 1.30157e-08 0
4.83097e-06 7.48466e-09 0
5.07415e-06 4.88386e-09 0
5.31524e-06 6.34307e-09 0
4.82985e-06 7.84432e-10 0
5.07272e-06 -9.86707e-10 0
5.31444e-06 -1.25377e-09 0
4.8328e-06 -8.54994e-09 0
5.07185e-06 -8.2425e-09 0
5.31374e-06 -6.72053e-09 0
4.83622e-06 -2.01533e-08 0
5.07102e-06 -1.95635e-08 0
5.31245e-06 -9.21999e-09 0
4.83502e-06 -3.12116e-08 0
5.07011e-06 -3.26585e-08 0
5.31343e-06 -9.11968e-09 0
4.83453e-06 -4.1836e-08 0
5.06688e-06 -4.50736e-08 0
5.31255e-06 -5.25032e-09 0
4.83184e-06 -5.37819e-08 0
5.07014e-06 -5.69878e-08 0
5.3187e-06 1.71645e-09 0
4.81907e-06 -5.14237e-08 0
5.08463e-06 -5.40001e-08 0
5.34091e-06 4.51517e-09 0
4.80649e-06 -2.67573e-08 0
5.09182e-06 -2.85679e-08 0
5.35634e-06 3.43385e-09 0
4.80384e-06 6.0251e-09 0
5.09116e-06 6.1483e-09 0
5.35841e-06 3.72774e-09 0
4.80406e-06 4.00618e-08 0
5.09217e-06 4.15415e-08 0
5.36283e-06 6.63647e-09 0
4.80136e-06 7.8682e-08 0
5.09533e-06 8.1457e-08 0
5.37795e-06 1.8571e-08 0
4.80452e-06 1.21665e-07 0
5.09696e-06 1.27578e-07 0
5.37697e-06 4.05175e-08 0
4.82863e-06 1.49115e-07 0
5.08279e-06 1.53469e-07 0
5.32926e-06 4.90689e-08 0
4.85256e-06 1.36399e-07 0
5.05774e-06 1.3013e-07 0
5.27881e-06 4.00944e-08 0
4.85041e-06 9.56327e-08 0
5.05002e-06 8.56431e-08 0
5.27142e-06 3.15801e-08 0
4.84248e-06 5.95399e-08 0
5.05944e-06 5.06902e-08 0
5.2852e-06 2.15318e-08 0
4.84084e-06 3.51369e-08 0
5.06878e-06 2.75232e-08 0
5.3012e-06 1.06005e-08 0
4.84054e-06 1.88521e-08 0
5.07586e-06 1.34801e-08 0
5.31488e-06 3.93634e-09 0
4.84001e-06 8.65235e-09 0
5.07961e-06 5.41788e-09 0
5.32184e-06 5.92872e-10 0
4.83952e-06 1.64487e-09 0
5.08052e-06 3.27572e-10 0
5.32442e-06 -1.31278e-09 0
4.83804e-06 -5.89058e-09 0
5.07801e-06 -3.0598e-09 0
5.32469e-06 -1.41582e-09 0
4.83031e-06 -1.79631e-08 0
5.06808e-06 -2.63766e-09 0
5.3249e-06 4.04675e-09 0
4.80837e-06 -3.93617e-08 0
5.04532e-06 1.06361e-08 0
5.32798e-06 2.55815e-08 0
4.79939e-06 -7.37902e-08 0
5.03943e-06 3.72367e-08 0
5.32007e-06 6.31588e-08 0
4.84609e-06 -7.70508e-08 0
5.11185e-06 3.72426e-08 0
5.30813e-06 5.67234e-08 0
5.58789e-06 3.12053e-08 0
5.82457e-06 5.52689e-08 0
6.0612e-06 3.3673e-08 0
5.59736e-06 1.83019e-08 0
5.82508e-06 3.50439e-08 0
6.05224e-06 2.38873e-08 0
6.11106e-06 2.46175e-08 0
5.8261e-06 3.91275e-08 0
5.54154e-06 2.47412e-08 0
5.58472e-06 1.3415e-08 0
5.82604e-06 2.0693e-08 0
6.06581e-06 1.74299e-08 0
5.57967e-06 1.38289e-08 0
5.8252e-06 1.67913e-08 0
6.07042e-06 1.70233e-08 0
5.57757e-06 1.40088e-08 0
5.82401e-06 1.62941e-08 0
6.07056e-06 1.75841e-08 0
5.57491e-06 1.39321e-08 0
5.82257e-06 1.7184e-08 0
6.0705e-06 1.82393e-08 0
5.56952e-06 1.49112e-08 0
5.8208e-06 2.07631e-08 0
6.07257e-06 2.02086e-08 0
5.55853e-06 1.92467e-08 0
5.81883e-06 3.17106e-08 0
6.07988e-06 2.58877e-08 0
5.5433e-06 3.02817e-08 0
5.81838e-06 5.77731e-08 0
6.09433e-06 3.82743e-08 0
5.53317e-06 5.01888e-08 0
5.82004e-06 1.00876e-07 0